# vtk DataFile Version 5.1
vtk output
ASCII
DATASET POLYDATA
POINTS 7536 double
31.426464909 64.329741966 2.9710823042 33.29116698 63.042631586 2.1662889771 31.599506209 65.697218004 2.1837678959 
33.220968035 63.519935571 1.9800026432 33.265227703 62.622090176 2.3669287569 29.722196517 65.768046704 3.5667938238 
31.989232391 65.797128816 1.6592792248 33.04971984 64.402122327 1.614161065 34.481316971 61.914926925 1.5578874001 
34.659300268 60.938590081 1.8751383775 34.383758345 61.424593411 1.9313339971 34.848867999 60.437323153 1.8920722184 
33.736972773 61.113091443 2.6357618511 30.909241463 64.304112275 3.2403157735 27.49125556 65.486320355 4.5177312553 
30.361472962 63.408480649 3.4871868888 28.910502233 63.931444546 3.853209481 31.769664485 62.577587882 3.1677599091 
24.181534179 66.708452858 5.3679425704 22.386474177 65.562675765 5.9846078043 24.160190988 67.209964963 5.0086273646 
23.359117052 66.234990369 5.6574686605 23.350051551 66.763925179 5.3640187507 26.565867123 66.438076739 4.8419249211 
21.127463346 63.977102767 6.6515700156 25.62079747 67.658441903 4.4374914756 27.739555248 67.640651381 3.602658431 
26.451906822 67.855724938 3.8519624221 24.465700906 65.539800187 5.522586349 26.190074298 65.866252656 4.9943135837 
25.66893888 64.564334828 4.943509454 23.213999288 64.615290552 5.914657009 34.417485103 64.307022882 -0.55965999704 
33.769438578 65.068704528 -1.1557935365 33.67679959 65.116398144 -0.61238667753 33.177810914 60.223613364 3.2376543609 
33.666265306 58.254858481 3.6012759685 33.791728603 57.653761157 3.6959553957 33.984671222 57.018071824 3.7576364736 
34.558226352 56.798753257 3.6126177463 34.718998986 56.270787138 3.6551040813 31.411438766 62.059119888 3.3250899976 
29.972221349 62.833200808 3.525826395 34.699107864 59.621991968 2.4721106398 25.759485368 67.345592742 1.9813459122 
25.330315337 67.619855721 2.6093399352 23.82112898 66.965281634 2.5643517931 28.021573239 67.015775452 1.0709482647 
27.194063134 67.649886115 2.0006757941 23.537892639 67.33366853 3.6834123378 26.261518448 67.05534727 1.4783673623 
24.311435678 66.865425881 2.0657388534 24.81947714 66.636179749 1.5706656496 29.266547695 66.982109512 0.87385788168 
28.227518704 67.810569441 2.4299573673 26.176107808 67.961129005 3.4594260279 30.000656367 67.253972205 1.6458992182 
27.773926746 67.871240635 2.9853452892 22.629947416 66.23767104 2.6711818284 22.231605044 66.566132114 3.8285108614 
20.24807636 64.743356864 4.4686585726 19.514937433 63.583935409 4.3883787098 23.099963417 66.168621692 2.127433119 
29.466291439 66.465132333 0.41277491077 30.877898552 65.408335729 -0.35862468979 28.864057578 66.074032688 0.26597350497 
30.282545203 64.814939411 -0.41081902451 30.982917399 64.008458603 -0.72875632716 30.825512627 66.525816166 0.40460246711 
31.987626364 65.330373807 -0.72907169158 33.083185355 65.333553896 -0.97954164304 31.418525138 66.522300471 0.56973171292 
33.063848871 64.901797804 -1.8031986704 33.413674179 65.106300812 -1.6309809159 31.558283632 65.553194509 -0.4725612281 
20.734562758 65.440013909 5.2943360675 19.627689684 64.280322836 6.0249238918 23.132356646 67.189557127 4.2359673773 
22.299193414 66.554843795 4.981461557 20.716928839 65.146651131 5.9785887649 19.040172858 62.989930643 7.3301624997 
19.954226364 64.642674576 5.128679946 19.225258761 63.549471227 4.9340225544 24.842183762 67.749248853 4.2143093649 
24.018838625 65.74848962 1.1193735365 22.99571774 65.048788532 1.202306693 24.565576971 65.452701354 0.653853965 
25.890832366 65.492333314 0.3449844932 22.453772619 65.160919465 1.7464482739 23.734398933 64.686337543 0.48331691767 
23.525937146 65.987071761 1.6169423247 25.349930795 66.320320806 1.069115762 21.681672417 64.29973129 1.8776467599 
21.137299652 63.427956684 1.9619484156 22.601975142 64.120148285 0.88064782097 21.947075715 63.156674902 0.91427525398 
23.502560356 62.316665451 -0.57811415322 26.089835852 64.294433191 -0.30420943386 21.613751072 63.294895554 1.3423134261 
27.816815823 65.195621358 -0.045593603084 21.260084343 64.398181646 2.4447141373 22.011264176 65.312376254 2.3483304018 
20.992928917 64.652522141 3.021351158 20.22457897 63.640913123 3.2767867555 20.584647463 63.501449998 2.6883357995 
25.880558605 22.616497171 10.19271646 25.857458835 22.990248209 10.51390687 24.957603238 22.168056613 9.6744665405 
22.867815666 21.736162198 10.411957204 24.488036829 22.061364938 9.8513827889 26.0701086 22.497817494 9.7788142263 
23.375692199 22.333649487 10.992373969 24.130944124 23.275110613 11.176443147 22.110228975 22.160406558 11.511766406 
21.870733255 22.514241773 11.820587974 22.253151612 21.858881612 11.141994133 28.97420292 24.40147899 9.3733779495 
30.22718063 25.601838857 8.7489274738 28.052906969 23.621642495 9.6490150395 27.098000446 22.975722679 9.3612672429 
29.251941751 24.590924664 8.3221061995 32.460191578 29.514212165 5.5942850818 32.704792548 30.253840125 5.1539160585 
32.164927764 28.103234846 6.788395246 31.769866468 27.652642904 7.9356957886 20.351030286 21.343961834 12.043388084 
20.780482861 21.151219523 11.060596449 18.390160026 20.405568387 11.865605803 19.733173162 20.812759043 11.248875269 
19.037424807 20.687835416 11.08180508 17.757727764 20.296998584 11.841831033 19.875750328 21.209699752 12.339694516 
20.945445583 21.919111003 12.070255556 21.105037185 21.303565569 10.203877775 22.312677154 21.612277678 9.8155325394 
20.230708334 21.002372005 10.809421123 28.071712804 25.006025343 10.16799889 27.658273438 25.267339663 10.382015797 
29.202330235 25.975003018 9.726445286 28.825459874 25.497356954 9.8591797527 26.575666544 24.476854265 10.698013736 
29.104475501 26.374350882 9.8148214371 30.057106644 26.512503807 9.2796494052 26.36515217 23.967980336 10.678511211 
27.816191863 24.447209716 10.18271006 30.771024416 27.792150024 8.9847102781 29.438268384 26.845774476 9.6716660669 
27.727187462 25.905158686 10.391447721 28.964951666 24.939494976 9.6494196787 31.868533045 28.341624413 8.1534526649 
31.149950228 27.230785939 8.5439444544 22.743279269 23.34251987 11.675296417 24.980199045 24.349133581 11.150042341 
22.13367625 22.827282884 7.9278596911 20.441440489 22.89360306 7.8605283348 21.856427043 23.734757254 7.1860000384 
22.498447167 22.022477102 8.9126139562 23.893224424 22.086743526 9.1914806354 23.571162515 23.581218041 7.6104405921 
25.596691383 24.557013534 7.6133614529 18.733755375 22.788696724 8.2728880471 18.517034167 23.333007016 7.9038708424 
17.769512035 22.427169515 8.8899723109 16.82872156 23.756170406 8.3663642625 20.320323353 24.132087163 6.9452727652 
19.080441689 20.97634621 10.383364798 16.446504733 20.346239001 11.846556043 18.502892433 21.544198297 9.5919510797 
15.127162998 20.423063947 12.417078213 15.873323078 20.207707894 12.323437615 14.6173381 20.232382682 13.037940352 
20.045740102 21.366079883 9.72421703 16.493508001 21.306938945 10.526509766 15.407581175 21.139241746 11.328960059 
26.359514924 23.424441954 8.4917445433 26.713258765 23.371300688 8.625803763 27.631609822 23.790197909 8.5042323839 
28.029430886 24.400906779 8.0980932435 25.202200635 22.624515394 8.8671405362 28.974911521 24.619410449 8.1293821746 
29.690194514 25.392934622 7.655798163 30.977877719 27.625690363 6.3821101384 31.635278862 28.79883877 5.7990771431 
30.707003059 26.817961564 6.8471102213 26.828679066 24.4886673 7.8828189442 28.216454831 25.836228173 7.2319779856 
28.536532174 25.632072528 7.3566544783 24.721506357 22.565147509 8.764673034 20.732001312 24.76903306 6.5338535952 
21.207431897 24.421709185 6.7228641058 24.242439943 25.74756537 6.6527272917 22.668379769 26.185204974 6.0647978568 
23.69043866 26.996080601 5.9360992997 25.019775917 28.669340789 5.4599493499 25.15799291 29.306593545 5.20437634 
19.709772122 24.164511764 7.0206698457 18.145094708 24.285991756 7.4086593086 23.657454703 24.512755024 7.0962823191 
24.811054651 24.698404689 7.3346836544 34.651270855 42.387467135 7.1745469901 35.888977672 41.57870055 7.0850826398 
36.223845833 40.784983591 7.1019225155 33.655798941 40.99852523 7.4517757799 37.522496648 42.555883707 6.916797227 
38.087600739 46.64459713 6.2151591939 38.950855209 45.941757876 6.2909016385 40.01632663 51.057816546 4.7620434983 
34.178349839 46.684196776 6.5257566782 31.610446956 45.907137361 6.8590831241 32.808883863 43.474755606 7.3036517618 
36.932848233 53.464655052 4.2299381169 36.596426881 54.337049611 3.8753336099 34.170550052 53.92028789 4.2450497758 
33.215826387 52.537416228 4.7762429555 32.866054014 54.40497473 4.3910807455 34.656254642 54.513893113 4.0008701139 
34.285084173 55.773057329 3.8602968374 36.767865442 55.088504094 3.6282981339 38.328213901 54.317281273 3.9824055484 
39.697945276 53.278664384 4.1122164285 33.849847457 50.499247297 5.3585989886 32.193991047 51.218748704 5.258166232 
33.751586692 36.297032358 7.560204573 34.901615782 36.607928585 7.1304969338 32.298357973 33.861382839 8.2226025791 
35.695219241 39.206339845 7.1546403013 34.471748972 38.334852224 7.3349901248 36.44748441 37.960337639 7.1559639091 
33.00680559 33.28257797 7.876069076 30.387980115 32.393337996 8.9789949543 36.874772848 39.7409446 7.146537828 
38.359225894 39.987452512 7.1507627432 30.664188456 40.068116646 8.1584637159 30.246805976 41.133963987 8.0440674173 
29.851113747 36.094885862 8.7129530549 28.84941523 37.597819165 8.7160757551 29.413308963 44.388877075 7.2896522778 
29.200696192 42.008719722 7.9295657692 31.796105477 42.908450821 7.5309078039 26.840070537 31.668752945 10.036264262 
24.610129431 29.811264268 10.970345107 28.231509355 38.704361698 8.6281366272 26.547824582 33.25021669 9.8081882378 
26.350289026 34.816456286 9.5448283492 27.180312031 39.604284299 8.5246073058 31.505467514 44.715286524 7.1634130647 
28.105707558 50.570134345 5.2935507776 29.078057593 50.952495487 5.2580272119 27.48079573 48.540886637 5.8545991045 
27.446367853 32.0216931 9.8147950244 25.37755834 29.23121969 10.863746616 43.706251606 53.046102597 2.1355780684 
[...]
CELL_DATA 15068
FIELD FieldData 2
plab 7 15068 double
0.99925581363 0.00012403106218 0.00012403106218 0.00012403106218 0.00012403106218 0.00012403106218 0.00012403106218 0.99877606562 0.00020398906368 
0.00020398906368 0.00020398906368 0.00020398906368 0.00020398906368 0.00020398906368 0.99867130878 0.0002214485361 0.0002214485361 0.0002214485361 
0.0002214485361 0.0002214485361 0.0002214485361 0.9990528543 0.00015785761644 0.00015785761644 0.00015785761644 0.00015785761644 0.00015785761644 
0.00015785761644 0.9994518674 9.047195407e-05 9.047195407e-05 9.047195407e-05 9.5772829737e-05 9.047195407e-05 9.047195407e-05 0.99930675427 
0.00011143811906 0.00011143811906 0.00011143811906 0.00011143811906 0.00013605513302 0.00011143811906 0.99663036186 0.00050484034623 0.00050484034623 
0.00050484034623 0.00050484034623 0.00084543640995 0.00050484034623 0.99743103262 0.00039566840815 0.00039566840815 0.00039566840815 0.00039566840815 
0.00059062533454 0.00039566840815 0.99846325309 0.00025120081622 0.00025120081622 0.00025120081622 0.00027167362192 0.0002602700252 0.00025120081622 
0.99870821363 0.00021529772763 0.00021529772763 0.00021529772763 0.00021529772763 0.00021529772763 0.00021529772763 0.99767441312 0.00038399696601 
0.00038399696601 0.00038399696601 0.00040560204782 0.00038399696601 0.00038399696601 0.99640506027 0.00037970333205 0.00037970333205 0.00037970333205 
0.00050507838483 0.0015710480184 0.00037970333205 0.99097934772 0.00066103295616 0.00066103295616 0.00066103295616 0.00070011775945 0.0056764026914 
0.00066103295616 0.20034240493 0.010859053226 0.010859053226 0.010859053226 0.27353591405 0.48268546812 0.010859053226 0.012446849571 
0.0015948212085 0.0013423241605 0.0023324136421 0.97951956405 0.0014217032081 0.0013423241605 0.00014265359329 9.6161806977e-05 9.0817688932e-05 
0.00010790089359 0.99938083064 9.0817688932e-05 9.0817688932e-05 0.00020046662521 0.00012465143716 0.00011205178364 0.00013312850925 0.99920559808 
0.00011205178364 0.00011205178364 9.6038959222e-05 8.0914735339e-05 8.0914735339e-05 0.00012069370429 0.9994596084 8.0914735339e-05 8.0914735339e-05 
0.00010114107076 8.7814794841e-05 8.7814794841e-05 0.00014207744189 0.99940552231 8.7814794841e-05 8.7814794841e-05 0.00057789074352 0.00037172243074 
0.00037172243074 0.0018373312007 0.99609788833 0.00037172243074 0.00037172243074 0.97923926747 0.00092476029923 0.00092476029923 0.00092476029923 
0.016136931038 0.00092476029923 0.00092476029923 0.00093589623463 0.00022378618134 0.00022378618134 0.00025530408474 0.99791365496 0.00022378618134 
0.00022378618134 0.00012417824922 0.00010609912526 0.00010609912526 0.00020805775919 0.99924336749 0.00010609912526 0.00010609912526 6.4904401156e-05 
6.1269404751e-05 6.1269404751e-05 7.7519946564e-05 0.99961249803 6.1269404751e-05 6.1269404751e-05 0.99838962333 0.00021464026553 0.00021464026553 
0.00021464026553 0.00021464026553 0.00021464026553 0.00053717534423 0.9991543617 0.00012846084558 0.00020333407591 0.00012846084558 0.00012846084558 
0.00012846084558 0.00012846084558 0.99871802205 0.00019304828083 0.00028042332047 0.00019304828083 0.00022936150713 0.00019304828083 0.00019304828083 
0.00024754565496 0.00011681688583 0.00011681688583 0.00011681688583 0.00011681688583 0.00011681688583 0.99916836992 0.00022977172986 0.00010671223429 
0.00010671223429 0.00010671223429 0.00010671223429 0.00010671223429 0.9992366671 0.00011004378871 7.353688102e-05 7.353688102e-05 7.353688102e-05 
7.353688102e-05 7.353688102e-05 0.99952227181 5.893219439e-05 5.4093488341e-05 5.4093488341e-05 5.4093488341e-05 5.4093488341e-05 5.4093488341e-05 
0.99967060036 7.3129363298e-05 6.0756053122e-05 6.0756053122e-05 6.0756053122e-05 6.0756053122e-05 6.0756053122e-05 0.99962309037 6.2526771684e-05 
5.6746888973e-05 5.6746888973e-05 5.6746888973e-05 5.6746888973e-05 5.6746888973e-05 0.99965373878 0.13017016176 0.0024792401344 0.0024792401344 
0.0024792401344 0.0024792401344 0.0024792401344 0.85743363757 0.99891944569 0.0001684861928 0.0001684861928 0.0001684861928 0.0001684861928 
0.0001684861928 0.00023812334312 0.98655998284 0.00083358568176 0.00083358568176 0.00083358568176 0.00083358568176 0.00083358568176 0.009272088747 
5.1003366924e-05 4.8320834986e-05 4.8320834986e-05 4.8320834986e-05 4.8320834986e-05 4.8320834986e-05 0.99970739246 6.4650272475e-05 5.4751274177e-05 
5.4751274177e-05 5.4751274177e-05 5.4751663553e-05 5.4751274177e-05 0.99966159297 4.6942086098e-05 4.6942086098e-05 4.6942086098e-05 4.6942086098e-05 
4.8333005455e-05 4.6942086098e-05 0.99971695656 6.8318209021e-05 5.7562605182e-05 5.7562605182e-05 5.7562605182e-05 5.7564005844e-05 5.7562605182e-05 
0.99964386736 5.8246249605e-05 5.4093525449e-05 5.4093525449e-05 5.4093525449e-05 5.4093525449e-05 5.4093525449e-05 0.99967128612 0.996402027 
0.00054900961639 0.00054900961639 0.00054900961639 0.00054900961639 0.00085292492111 0.00054900961639 0.99920200005 0.00013299999213 0.00013299999213 
0.00013299999213 0.00013299999213 0.00013299999213 0.00013299999213 0.99923647921 0.00012725346485 0.00012725346485 0.00012725346485 0.00012725346485 
0.00012725346485 0.00012725346485 0.0001729195563 0.99848273365 0.00065266857124 0.0001729195563 0.0001729195563 0.0001729195563 0.0001729195563 
6.4361548339e-05 0.99958861307 6.4361548339e-05 6.4361548339e-05 6.814598399e-05 8.5794752847e-05 6.4361548339e-05 0.99903127677 0.00016145387238 
0.00016145387238 0.00016145387238 0.00016145387238 0.00016145387238 0.00016145387238 0.99888343665 0.00018609389107 0.00018609389107 0.00018609389107 
0.00018609389107 0.00018609389107 0.00018609389107 0.00074175946127 0.00066160014796 0.00066160014796 0.00066160014796 0.98992259551 0.0064691834628 
0.00088166112532 5.7502945741e-05 5.1201128813e-05 5.1201128813e-05 5.1201128813e-05 5.1201128813e-05 0.99968649141 5.1201128813e-05 5.0885262351e-05 
4.8144324438e-05 4.8144324438e-05 4.8144324438e-05 4.8144324438e-05 0.99970839312 4.8144324438e-05 9.7031938868e-05 9.7031938868e-05 9.7031938868e-05 
0.99930820409 0.00020663621561 9.7031938868e-05 9.7031938868e-05 4.6087230845e-05 4.6087230845e-05 4.6087230845e-05 0.99972296364 4.6600204873e-05 
4.6087230845e-05 4.6087230845e-05 4.5531799218e-05 4.5531799218e-05 4.5531799218e-05 0.9997268092 4.5531799218e-05 4.5531799218e-05 4.5531799218e-05 
0.00041516551226 0.00041516551226 0.00041516551226 0.00049325996167 0.0031855866018 0.00041516551226 0.99466049139 0.027428610078 0.0017343772374 
0.0017343772374 0.0017343772374 0.0017343772374 0.96389950374 0.0017343772374 0.98435186992 0.0010284223097 0.0010284223097 0.0010284223097 
0.001221873046 0.010312567797 0.0010284223097 0.99433074855 0.00053744534623 0.00053744534623 0.00053744534623 0.00060290440924 0.0029165656555 
0.00053744534623 4.903895894e-05 0.99970576625 4.903895894e-05 4.903895894e-05 4.903895894e-05 4.903895894e-05 4.903895894e-05 0.00045460405169 
0.00016957312928 0.9986975303 0.00016957312928 0.00016957312928 0.00016957312928 0.00016957312928 0.0053513844207 0.00072230114284 0.99071490913 
0.00072230114284 0.00072230114284 0.00072230114284 0.0010445018821 4.5531799218e-05 4.5531799218e-05 0.9997268092 4.5531799218e-05 4.5531799218e-05 
4.5531799218e-05 4.5531799218e-05 6.9608077241e-05 6.0373337192e-05 0.99962852524 6.0373337192e-05 6.0373337192e-05 6.0373337192e-05 6.0373337192e-05 
0.90687049739 0.0035643959156 0.007943938144 0.0035643959156 0.0035643959156 0.0035643959156 0.070927980806 0.99908497576 0.00015102089841 
0.00015102089841 0.00015102089841 0.00015102089841 0.00015991974696 0.00015102089841 0.9987564778 0.00020313862787 0.00020313862787 0.00020313862787 
0.00020313862787 0.00022782906346 0.00020313862787 0.9981045726 0.00029939759411 0.00029939759411 0.00029939759411 0.00029939759411 0.00039843943075 
0.00029939759411 0.0007317813344 0.0007317813344 0.0007317813344 0.0007317813344 0.011830382282 0.98451071105 0.0007317813344 0.00017150839643 
0.00017150839643 0.00017150839643 0.00017150839643 0.0006444820376 0.99849797598 0.00017150839643 0.82762916366 0.0031316921681 0.0031316921681 
0.0031316921681 0.0036482890847 0.15619577858 0.0031316921681 0.99646420667 0.00035193639352 0.00035193639352 0.00035193639352 0.00035195354265 
0.0017760942146 0.00035193639352 0.00029491240906 0.00014638005669 0.00014638005669 0.00014638005669 0.00023124285681 0.99888832451 0.00014638005669 
0.0011821392811 0.00088512297753 0.00088512297753 0.00088512297753 0.012242149721 0.98303521909 0.00088512297753 0.0036978695061 0.00044050738249 
0.00044050738249 0.00044050738249 0.00049557733433 0.99404452363 0.00044050738249 0.86047894614 0.0027451378751 0.0027451378751 0.0027451378751 
0.0032580499393 0.12528245242 0.0027451378751 0.0021569315723 0.0021569315723 0.0021569315723 0.0021569315723 0.10279207931 0.88642326283 
0.0021569315723 0.9651108892 0.0014597096236 0.0014597096236 0.0014597096236 0.0017343174479 0.02731595486 0.0014597096236 0.99940297349 
9.8632572538e-05 9.8632572538e-05 9.8632572538e-05 0.00010386364431 9.8632572538e-05 9.8632572538e-05 0.99931192009 0.00011120527828 0.00011120527828 
0.00011120527828 0.00013205352201 0.00011120527828 0.00011120527828 0.99938509968 0.00010148393491 0.00010148393491 0.00010148393491 0.0001074806467 
0.00010148393491 0.00010148393491 0.0044262929476 0.99045336492 0.00093459541451 0.00093459541451 0.00099728847112 0.001319267417 0.00093459541451 
4.5531799218e-05 4.5531799218e-05 4.5531799218e-05 0.9997268092 4.5531799218e-05 4.5531799218e-05 4.5531799218e-05 0.0034851280114 0.88908034916 
0.002532256135 0.097305498285 0.002532256135 0.002532256135 0.002532256135 0.00053796347495 0.99413278867 0.0004504011652 0.0035276431954 
0.0004504011652 0.0004504011652 0.0004504011652 4.8224656868e-05 4.8224656868e-05 4.8224656868e-05 0.99970779997 5.1076744664e-05 4.8224656868e-05 
4.8224656868e-05 0.99944625699 9.2284369017e-05 9.2284369017e-05 9.2284369017e-05 9.2284369017e-05 9.2284369017e-05 9.2321166724e-05 0.9976792916 
0.00036306946891 0.00036306946891 0.00036306946891 0.00036306946891 0.0003845397429 0.0004838907769 0.99920149511 0.00013062496976 0.00013062496976 
0.00013062496976 0.00013062496976 0.00013834953255 0.00013765548313 0.9971579811 0.00043615703579 0.00043615703579 0.00043615703579 0.00043615703579 
0.0005488286933 0.0005485620622 0.99540923888 0.0007040104721 0.0007040104721 0.0007040104721 0.0007040104721 0.00093828131212 0.0008364379223 
0.99565700102 0.00060918786339 0.00060918786339 0.00060918786339 0.00060918786339 0.0011824687577 0.00072377876599 0.9993321636 0.00011130606694 
0.00011130606694 0.00011130606694 0.00011130606694 0.00011130606694 0.00011130606694 0.99934829419 0.00010861763534 0.00010861763534 0.00010861763534 
0.00010861763534 0.00010861763534 0.00010861763534 0.99149667241 0.001301529337 0.001301529337 0.001301529337 0.001301529337 0.0014599818294 
0.0018372284091 8.7185540893e-05 7.2227296694e-05 7.2227296694e-05 7.2227296694e-05 7.2227296694e-05 8.5813567233e-05 0.99953809171 4.5531799218e-05 
4.5531799218e-05 0.9997268092 4.5531799218e-05 4.5531799218e-05 4.5531799218e-05 4.5531799218e-05 4.5531799218e-05 4.5531799218e-05 0.9997268092 
4.5531799218e-05 4.5531799218e-05 4.5531799218e-05 4.5531799218e-05 4.5562326483e-05 4.5562326483e-05 0.99972662604 4.5562326483e-05 4.5562326483e-05 
4.5562326483e-05 4.5562326483e-05 6.5622309708e-05 5.5141980288e-05 0.99965866779 5.5141980288e-05 5.5141980288e-05 5.5141980288e-05 5.5141980288e-05 
4.5534546219e-05 4.5534546219e-05 0.99972679272 4.5534546219e-05 4.5534546219e-05 4.5534546219e-05 4.5534546219e-05 6.4966799318e-05 5.459921717e-05 
0.99966203711 5.459921717e-05 5.459921717e-05 5.459921717e-05 5.459921717e-05 4.5531799218e-05 4.5531799218e-05 0.9997268092 4.5531799218e-05 
4.5531799218e-05 4.5531799218e-05 4.5531799218e-05 0.00010289716551 6.8796316485e-05 0.99955312125 6.8796316485e-05 6.8796316485e-05 6.8796316485e-05 
6.8796316485e-05 0.56030229695 0.003371384691 0.4228407796 0.003371384691 0.003371384691 0.003371384691 0.003371384691 0.0051068958075 
0.00050735596526 0.99235632437 0.00050735596526 0.00050735596526 0.00050735596526 0.00050735596526 4.5534546219e-05 4.5534546219e-05 0.99972679272 
4.5534546219e-05 4.5534546219e-05 4.5534546219e-05 4.5534546219e-05 6.0393285576e-05 6.0176455644e-05 7.12609469e-05 6.0176455644e-05 6.0176455644e-05 
6.0176455644e-05 0.99962763994 5.6633550933e-05 5.6370619061e-05 6.6754075969e-05 5.6370619061e-05 5.6370619061e-05 5.6370619061e-05 0.9996511299 
0.9993317109 0.00010251028967 0.00010251028967 0.00010251028967 0.00010251028967 0.00010251028967 0.0001557376469 0.58592795401 0.0034456801005 
0.0034456801005 0.0034456801005 0.0034456801005 0.0034456801005 0.39684364549 6.1388143131e-05 5.4194875777e-05 5.4194875777e-05 5.4194875777e-05 
5.4194875777e-05 5.4194875777e-05 0.99966763748 5.4259188676e-05 5.4259188676e-05 5.4259188676e-05 6.0866218567e-05 5.7467834432e-05 5.4259188676e-05 
0.99966462919 0.99949276164 8.4539727199e-05 8.4539727199e-05 8.4539727199e-05 8.4539727199e-05 8.4539727199e-05 8.4539727199e-05 0.99920272752 
0.0001328787459 0.0001328787459 0.0001328787459 0.0001328787459 0.0001328787459 0.0001328787459 0.99887254274 0.0001879095439 0.0001879095439 
0.0001879095439 0.0001879095439 0.0001879095439 0.0001879095439 0.9993940787 0.00010098688274 0.00010098688274 0.00010098688274 0.00010098688274 
0.00010098688274 0.00010098688274 0.99936234913 0.0001052648592 0.0001052648592 0.0001052648592 0.0001052648592 0.00011132657076 0.0001052648592 
0.99937892185 0.0001035130257 0.0001035130257 0.0001035130257 0.0001035130257 0.0001035130257 0.0001035130257 0.99951135846 8.1429184267e-05 
8.1429184267e-05 8.1429184267e-05 8.1495613715e-05 8.1429184267e-05 8.1429184267e-05 0.9987311586 0.00021147356584 0.00021147356584 0.00021147356584 
0.00021147356584 0.00021147356584 0.00021147356584 0.99777191233 0.000371347945 0.000371347945 0.000371347945 0.000371347945 0.000371347945 
0.000371347945 0.99858930606 0.00023511565618 0.00023511565618 0.00023511565618 0.00023511565618 0.00023511565618 0.00023511565618 0.99712567448 
0.00047453886844 0.00047453886844 0.00047453886844 0.00050163117704 0.00047453886844 0.00047453886844 0.99746811048 0.00042198158739 0.00042198158739 
0.00042198158739 0.00042198158739 0.00042198158739 0.00042198158739 0.99681110715 0.00052139595926 0.00052139595926 0.00052139595926 0.00058191305517 
0.00052139595926 0.00052139595926 0.99806707244 0.0003221545937 0.0003221545937 0.0003221545937 0.0003221545937 0.0003221545937 0.0003221545937 
0.99893849394 0.00017691767672 0.00017691767672 0.00017691767672 0.00017691767672 0.00017691767672 0.00017691767672 0.99893661909 0.00017723015131 
0.00017723015131 0.00017723015131 0.00017723015131 0.00017723015131 0.00017723015131 0.99930114298 0.00011593890753 0.00011593890753 0.00011593890753 
0.00011593890753 0.00011916248273 0.00011593890753 0.99939076112 0.00010153981269 0.00010153981269 0.00010153981269 0.00010153981269 0.00010153981269 
0.00010153981269 0.99927892511 0.00011779293765 0.00011779293765 0.00011779293765 0.00013211020431 0.00011779293765 0.00011779293765 0.99917194784 
0.00013800869256 0.00013800869256 0.00013800869256 0.00013800869256 0.00013800869256 0.00013800869256 0.99898740902 0.00015683727274 0.00015683727274 
0.00015683727274 0.00022840461527 0.00015683727274 0.00015683727274 0.99894016734 0.0001766387759 0.0001766387759 0.0001766387759 0.0001766387759 
0.0001766387759 0.0001766387759 0.066601224081 0.0018741996427 0.0018741996427 0.0018741996427 0.92402777771 0.0018741996427 0.0018741996427 
0.00045766284459 0.00017808737318 0.00015876587028 0.00015876876067 0.99872918341 0.00015876587028 0.00015876587028 0.99898592333 0.00013648897793 
0.00013648897793 0.00013648897793 0.0003316317812 0.00013648897793 0.00013648897793 0.99936657279 0.00010481253949 9.8961826038e-05 9.8961826038e-05 
0.00013276736738 9.8961826038e-05 9.8961826038e-05 0.99936565 0.00010263829917 0.00010263829917 0.00010263829917 0.00012115850722 0.00010263829917 
0.00010263829917 0.99071834666 0.00060417617498 0.00060417617498 0.00060417617498 0.0062607724627 0.00060417617498 0.00060417617498 0.99829302291 
0.00022672262643 0.00022672262643 0.00022672262643 0.00057336396129 0.00022672262643 0.00022672262643 0.99939859331 9.7189729845e-05 9.7189729845e-05 
9.7189729845e-05 9.7189729845e-05 0.00011545803635 9.7189729845e-05 0.99940663264 9.889455992e-05 9.889455992e-05 9.889455992e-05 9.889455992e-05 
9.889455992e-05 9.889455992e-05 0.99933591673 0.0001049381992 0.0001049381992 0.0001049381992 0.0001049381992 0.0001393922788 0.0001049381992 
0.99938457607 9.7638126813e-05 9.7638126813e-05 9.7638126813e-05 9.7638126813e-05 0.00012723330087 9.7638126813e-05 0.99885779521 0.00019036746494 
0.00019036746494 0.00019036746494 0.00019036746494 0.00019036746494 0.00019036746494 0.99758336281 0.00040277286558 0.00040277286558 0.00040277286558 
0.00040277286558 0.00040277286558 0.00040277286558 0.99694279573 0.00050953404581 0.00050953404581 0.00050953404581 0.00050953404581 0.00050953404581 
0.00050953404581 0.99789864885 0.00035022519113 0.00035022519113 0.00035022519113 0.00035022519113 0.00035022519113 0.00035022519113 0.99923232178 
0.00012794636932 0.00012794636932 0.00012794636932 0.00012794636932 0.00012794636932 0.00012794636932 0.99928760309 0.00011760383433 0.00011760383433 
0.00011760383433 0.00012437774026 0.00011760383433 0.00011760383433 0.99935480353 0.00010426399253 0.00010426399253 0.00010426399253 0.00010426399253 
0.00012387650573 0.00010426399253 0.99908337168 0.00014303726435 0.00014303726435 0.00014303726435 0.0001681717969 0.00017630746176 0.00014303726435 
0.99951606325 8.0656124624e-05 8.0656124624e-05 8.0656124624e-05 8.0656124624e-05 8.0656124624e-05 8.0656124624e-05 0.998387944 0.0002660931295 
0.0002660931295 0.0002660931295 0.0002660931295 0.00028159034931 0.0002660931295 0.99839519246 0.00026225943394 0.00026225943394 0.00026225943394 
0.00026225943394 0.00029351037471 0.00026225943394 0.9985815966 0.00023640056674 0.00023640056674 0.00023640056674 0.00023640056674 0.00023640056674 
0.00023640056674 0.99762287038 0.00037543603063 0.00037543603063 0.00037543603063 0.00037543603063 0.00049994946758 0.00037543603063 0.9960450898 
0.00063979766604 0.00063979766604 0.00063979766604 0.00075592187099 0.00063979766604 0.00063979766604 0.99868621525 0.00021896412477 0.00021896412477 
0.00021896412477 0.00021896412477 0.00021896412477 0.00021896412477 0.99868153225 0.00021196910378 0.00021196910378 0.00021196910378 0.00021196910378 
0.00025862223059 0.00021196910378 0.99722564245 0.00042145327934 0.00042145327934 0.00042145327934 0.00042145327934 0.00066709115325 0.00042145327934 
0.99725693502 0.00041083852232 0.00041083852232 0.00041083852232 0.00041083852232 0.0006888723704 0.00041083852232 0.99754526639 0.00036764876523 
0.00036764876523 0.00036764876523 0.00036764876523 0.00061648978105 0.00036764876523 0.99795321198 0.000315250893 0.000315250893 0.000315250893 
0.000315250893 0.00047053355116 0.000315250893 0.99829895939 0.00026987668787 0.00026987668787 0.00026987668787 0.00026987668787 0.00035165717556 
0.00026987668787 0.99581674401 0.00062975769941 0.00062975769941 0.00062975769941 0.00062975769941 0.0010344674882 0.00062975769941 0.99638313603 
0.00055678067194 0.00055678067194 0.00055678067194 0.00055678067194 0.0008329606145 0.00055678067194 0.99718156159 0.00043941276194 0.00043941276194 
0.00043941276194 0.00043941276194 0.00062137460004 0.00043941276194 0.99762155346 0.00038852491144 0.00038852491144 0.00038852491144 0.00038852491144 
0.00043582198009 0.00038852491144 0.9968394196 0.00049311562246 0.00049311562246 0.00049311562246 0.00049311562246 0.00069500228505 0.00049311562246 
0.99910835471 0.00014860754842 0.00014860754842 0.00014860754842 0.00014860754842 0.00014860754842 0.00014860754842 0.99905328587 0.0001562381196 
0.0001562381196 0.0001562381196 0.00016552353168 0.0001562381196 0.0001562381196 0.99898553044 0.00016907826061 0.00016907826061 0.00016907826061 