# vtk DataFile Version 5.1
vtk output
ASCII
DATASET POLYDATA
POINTS 7536 float
-28.9967 67.949 2.68237 -31.004 66.8937 1.88327 -29.0046 69.325 1.89094 
-30.877 67.3585 1.69543 -31.0287 66.4737 2.0852 -27.1307 69.1731 3.27206 
-29.3801 69.4696 1.36649 -30.6011 68.2125 1.32668 -32.3222 65.9159 1.27946 
-32.6162 64.9691 1.59992 -32.284 65.4185 1.65435 -32.8648 64.4944 1.61859 
-31.6786 65.0334 2.35917 -28.486 67.862 2.95122 -24.9488 68.6273 4.22188 
-28.0499 66.9076 3.2004 -26.546 67.2529 3.56349 -29.5484 66.2516 2.88483 
-21.5148 69.444 5.06531 -19.8702 68.092 5.68395 -21.4336 69.9382 4.70441 
-20.7551 68.8757 5.35558 -20.6827 69.3988 5.06047 -23.915 69.4615 4.54227 
-18.8107 66.3682 6.35474 -22.8302 70.5578 4.13318 -24.9367 70.7931 3.3003 
-23.6322 70.8521 3.54778 -21.9376 68.3186 5.22386 -23.6107 68.849 4.69611 
-23.2504 67.4936 4.64891 -20.806 67.2511 5.6177 -31.9731 68.2765 -0.84561 
-31.2387 68.9527 -1.4447 -31.1403 68.9905 -0.901528 -31.23 64.0848 2.96334 
-31.9518 62.1904 3.33355 -32.1487 61.6091 3.43022 -32.4168 61.0015 3.49406 
-33.0128 60.8525 3.35024 -33.236 60.3479 3.39452 -29.2551 65.6942 3.04346 
-27.7328 66.2897 3.24049 -32.8137 63.6687 2.20104 -23.0087 70.2566 1.67815 
-22.5488 70.479 2.3049 -21.1296 69.6471 2.26061 -25.2952 70.1992 0.770809 
-24.3961 70.7317 1.69781 -20.8026 69.982 3.37826 -23.5427 70.0275 1.17653 
-21.629 69.6056 1.76275 -22.1616 69.4378 1.26885 -26.5354 70.3153 0.574937 
-25.4021 71.0171 2.12751 -23.3462 70.9223 3.15467 -27.2304 70.676 1.34678 
-24.9438 71.0243 2.6823 -20.0347 68.7815 2.36865 -19.5982 69.063 3.52459 
-17.8481 67.0163 4.16866 -17.2602 65.7767 4.09135 -20.5103 68.768 1.82554 
-26.7966 69.8248 0.115651 -28.3263 68.9436 -0.65118 -26.2461 69.3635 -0.030465 
-27.8069 68.2826 -0.702051 -28.5998 67.5655 -1.01684 -28.1386 70.0489 0.108503 
-29.4378 68.9989 -1.02039 -30.5253 69.1334 -1.26989 -28.7275 70.1174 0.274172 
-30.5592 68.7 -2.09221 -30.8816 68.9457 -1.92032 -28.9844 69.1691 -0.764961 
-18.246 67.769 4.99259 -17.2861 66.4865 5.72581 -20.4167 69.7917 3.9309 
-19.6652 69.0634 4.67763 -18.263 67.4777 5.67774 -16.8568 65.1386 7.03455 
-17.5677 66.8829 4.82873 -16.9761 65.7092 4.63684 -22.0466 70.5534 3.90902 
-21.4744 68.4587 0.81962 -20.543 67.641 0.903826 -22.0534 68.2296 0.355516 
-23.3646 68.4278 0.0477081 -19.9908 67.6886 1.44713 -21.3209 67.3681 0.186633 
-20.9557 68.6376 1.316 -22.7269 69.1867 0.768764 -19.328 66.741 1.58033 
-18.8926 65.8102 1.66687 -20.2645 66.6707 0.58472 -19.7305 65.6354 0.620774 
-21.3778 64.9846 -0.867592 -23.7074 67.2607 -0.59756 -19.3824 65.7337 1.04808 
-25.3128 68.3643 -0.34022 -18.8969 66.7896 2.14671 -19.5325 67.7874 2.04814 
-18.6003 67.0116 2.72231 -17.9592 65.9155 2.98022 -18.3342 65.8187 2.39253 
-28.5114 25.8932 10.0294 -28.443 26.2624 10.3494 -27.6499 25.3352 9.51173 
-25.6265 24.6567 10.2487 -27.1964 25.1732 9.68856 -28.7144 25.797 9.61604 
-26.0579 25.3128 10.8277 -26.6939 26.339 11.0095 -24.8219 24.9898 11.3465 
-24.5411 25.3131 11.654 -25.0006 24.7066 10.9778 -31.3683 28.0357 9.20725 
-32.4682 29.3765 8.58017 -30.5474 27.1513 9.4845 -29.6777 26.3941 9.19792 
-31.6225 28.2541 8.15564 -34.2172 33.5201 5.41531 -34.3714 34.2825 4.97285 
-34.0927 32.0874 6.61356 -33.7534 31.5959 7.76191 -23.1733 23.9688 11.8791 
-23.6241 23.8263 10.8973 -21.3401 22.8003 11.7025 -22.625 23.3646 11.0857 
-21.9496 23.1562 10.9184 -20.7254 22.6162 11.6785 -22.7173 23.7791 12.1754 
-23.694 24.6115 11.9047 -23.929 24.0141 10.0404 -25.0911 24.465 9.65217 
-23.0966 23.6115 10.6461 -30.3985 28.5294 9.99917 -29.9563 28.7396 10.212 
-31.4046 29.6263 9.5556 -31.0879 29.1071 9.68949 -28.9765 27.8253 10.5295 
-31.2592 30.0112 9.64264 -32.1889 30.2616 9.10789 -28.8289 27.2947 10.5114 
-30.2122 27.9439 10.0154 -32.7437 31.6171 8.80959 -31.5339 30.519 9.49831 
-29.9478 29.3811 10.2195 -31.2939 28.5695 9.4816 -33.768 32.2924 7.9776 
-33.1881 31.1042 8.37092 -25.3076 26.2401 11.5069 -27.4075 27.5075 10.9805 
-24.7693 25.6439 7.76055 -23.0815 25.5055 7.6915 -24.3856 26.5091 7.01561 
-25.2272 24.8919 8.74814 -26.6037 25.1247 9.02805 -26.1058 26.5647 7.44206 
-27.9989 27.7776 7.44374 -21.3984 25.1967 8.10266 -21.1181 25.7098 7.73175 
-20.484 24.7234 8.72001 -19.3905 25.9277 8.19141 -22.8131 26.7176 6.77227 
-21.9584 23.4457 10.2191 -19.4178 22.507 11.6819 -21.3176 23.9374 9.4254 
-18.0981 22.4259 12.251 -18.8649 22.3018 12.1587 -17.6142 22.177 12.872 
-22.8705 23.947 9.5596 -19.3503 23.4624 10.3589 -18.2915 23.1674 11.1609 
-28.8916 26.7479 8.32634 -29.249 26.7382 8.46088 -30.1103 27.2644 8.33882 
-30.4321 27.9174 7.93113 -27.8387 25.8154 8.7032 -31.3443 28.2484 7.96258 
-31.9617 29.1011 7.48722 -32.9724 31.469 6.20771 -33.4843 32.7111 5.6216 
-32.8003 30.6359 6.67499 -29.2298 27.8591 7.71451 -30.4458 29.3622 7.0607 
-30.788 29.1985 7.1863 -27.3688 25.6982 8.60049 -23.1455 27.3983 6.35923 
-23.6591 27.1114 6.54975 -26.5122 28.7933 6.47818 -24.8976 29.0362 5.88748 
-25.8146 29.964 5.75716 -26.9331 31.7839 5.27697 -26.9938 32.4324 5.01953 
-22.203 26.6764 6.84702 -20.6346 26.6095 7.23323 -26.0798 27.4983 6.92507 
-27.2023 27.8224 7.16392 -34.8382 46.5683 6.95728 -36.1645 45.9144 6.87145 
-36.5926 45.1669 6.89107 -34.0171 45.0703 7.23796 -37.6685 47.0809 6.70157 
-37.7374 51.2058 5.98766 -38.679 50.6124 6.06637 -39.1218 55.815 4.52248 
-33.8515 50.7747 6.29464 -31.3956 49.6947 6.6281 -32.878 47.4259 7.08134 
-35.7713 57.8309 3.9801 -35.3326 58.6553 3.62247 -32.9742 57.9502 3.99132 
-32.1925 56.4639 4.52598 -31.6206 58.2745 4.13467 -33.3851 58.5973 3.74572 
-32.865 59.8021 3.60088 -35.4125 59.4212 3.37324 -37.054 58.8448 3.73115 
-38.5388 57.9793 3.86543 -33.0669 54.5188 5.11527 -31.3365 55.0331 5.01111 
-34.6789 40.415 7.36117 -35.7836 40.861 6.93152 -33.5291 37.8239 8.02988 
-36.2581 43.5362 6.94825 -35.1484 42.5241 7.13023 -37.1551 42.39 6.95414 
-34.3026 37.3337 7.68579 -31.8087 36.1385 8.78915 -37.3646 44.2091 6.93953 
-38.8085 44.6328 6.94431 -31.1586 43.7881 7.94488 -30.6159 44.7955 7.82678 
-30.8298 39.7475 8.51106 -29.6542 41.1187 8.50859 -29.397 47.9239 7.06145 
-29.4721 45.5374 7.70861 -31.9406 46.7423 7.30946 -28.3727 34.9946 9.84551 
-26.3818 32.8846 10.7834 -28.9075 42.1424 8.41664 -27.8922 36.5286 9.61223 
-27.5076 38.0588 9.3438 -27.7556 42.9087 8.30936 -31.4347 48.4998 6.93606 
-27.3562 53.8964 5.04487 -28.2754 54.3931 5.00902 -26.9798 51.8083 5.6117 
-28.9323 35.4174 9.62348 -27.2137 32.401 10.6793 -42.5484 58.2258 1.89311 
-41.4239 43.862 6.48831 -40.1788 59.8546 2.8291 -40.7238 57.918 3.41014 
-37.3662 61.3623 2.81553 -35.8318 61.4447 2.53866 -37.9877 61.4466 2.48853 
-42.9261 45.5406 5.58359 -42.7605 58.2035 1.56335 -40.8436 41.9879 6.68889 
-43.8177 53.3519 3.05726 -40.5414 41.4335 6.78055 -43.1517 43.6307 5.16274 
-39.1026 41.7753 7.14504 -38.2885 40.9457 7.05607 -39.231 42.9301 7.09747 
-37.5958 40.5968 6.87462 -37.4022 41.336 6.93064 -37.3327 40.3542 6.7914 
-38.3964 40.2668 6.97979 -37.987 39.8448 6.79978 -36.9682 39.9495 6.6505 
-39.1136 43.5068 7.0522 -39.1075 40.6066 7.07794 -39.5595 41.4807 7.09635 
-39.9639 40.3762 6.84456 -37.4556 60.6282 3.25259 -34.7859 60.953 2.81377 
-35.0255 60.3288 3.06819 -34.5899 59.9624 3.20338 -35.6737 61.1042 2.7921 
-37.6206 59.8344 3.45962 -39.7215 61.1672 1.57144 -41.9756 60.097 0.452607 
-40.4614 60.8002 1.55705 -37.9944 61.69 1.76054 -39.4957 61.321 1.32529 
-37.2533 61.8593 1.72262 -43.1026 57.7547 1.29556 -44.5332 46.4913 3.55843 
-43.3831 57.9626 0.187335 -36.797 61.6434 2.42809 -29.5179 48.9017 1.44092 
-28.4636 46.5083 1.48061 -31.8487 43.2481 1.34173 -32.7359 42.3198 0.593183 
-27.1586 47.8233 0.808383 -25.3064 50.4704 -0.405143 -24.2528 52.6922 -1.03188 
-31.9739 45.6664 1.56659 -26.9482 58.1817 -0.54726 -23.9005 63.8673 -1.34598 
-21.6756 63.887 -1.26398 -23.4455 65.4379 -1.14702 -22.5495 64.7224 -1.25972 
-23.0612 58.3213 -1.5167 -22.8019 60.301 -1.56263 -28.3891 59.7674 -0.278043 
-30.464 42.0607 2.90433 -30.2168 40.0315 3.65046 -29.6915 40.2631 3.56193 
-29.4816 37.7543 3.94869 -31.7747 41.5509 2.0927 -26.1974 46.882 0.803551 
-34.2518 40.7505 -0.450436 -34.8868 43.5343 -2.38438 -37.4037 42.6472 0.0924216 
-36.6518 41.5694 -0.303654 -33.4968 45.8474 -0.744318 -34.3857 43.4163 -1.94395 
-34.0566 40.4412 0.156044 -20.8304 58.9202 -1.10384 -22.856 46.8486 0.343871 
-20.7809 52.0691 -0.0879606 -21.8097 48.2007 0.244175 -25.4568 43.9644 1.56878 
-22.2383 54.5333 -1.24276 -21.9121 57.5799 -1.42299 -20.3557 55.5376 -0.421653 
-19.8214 59.5385 -0.353886 -19.1428 58.6674 0.514454 -19.1028 59.8172 0.504385 
-24.2639 37.1087 3.01409 -22.8977 39.6276 2.34446 -22.4079 36.3318 3.43397 
-21.8361 34.3668 4.22099 -25.1151 40.8589 2.23191 -22.6696 43.5552 1.28073 
-26.7357 43.1116 2.22059 -25.8374 37.5845 3.11836 -25.7905 40.8672 2.41749 
-26.0989 43.097 2.012 -24.746 34.6386 3.80358 -27.0996 34.2625 4.34478 
-23.933 34.8126 3.71387 -24.8556 37.9306 2.85139 -22.9055 33.048 4.356 
-22.3958 33.7286 4.23064 -23.588 32.9473 4.32952 -21.0448 61.7956 -1.27052 
-19.9645 61.102 -0.524354 -20.5411 62.6666 -0.884559 -19.2518 62.1714 0.338754 
-19.7586 62.9345 -0.162654 -20.7629 59.9392 -1.11055 -21.9065 61.1781 -1.53555 
-20.1615 63.6795 -0.426069 -20.8887 63.1377 -1.0526 -20.7384 63.9846 -0.810899 
-20.0863 60.2851 -0.633172 -19.5929 61.4742 -0.119124 -19.2717 60.8145 0.260715 
-18.8618 60.852 0.795788 -21.4157 46.4603 0.895082 -20.7956 47.9597 0.924281 
-21.9246 42.5763 1.75323 -22.3066 41.2389 2.00523 -20.6162 51.0896 0.26004 
-21.422 38.7449 3.09833 -20.5551 36.0751 4.52983 -21.2901 49.75 0.110879 
-20.2806 49.414 0.998522 -20.1425 52.5605 0.350485 -20.2872 39.2417 3.94862 
-20.9105 37.0919 3.96116 -22.3033 37.7526 3.0281 -22.2774 37.0727 3.23185 
-20.908 35.5246 4.37352 -19.6606 54.7644 0.386332 -19.3931 57.1872 0.33359 
-18.8566 59.0557 0.895414 -41.9491 41.7251 2.68861 -42.5615 55.6034 -0.136178 
-41.8049 42.1744 2.64002 -42.1125 41.1971 2.85275 -40.5163 60.0568 -0.129036 
-40.586 59.4012 -0.0855026 -39.9576 39.9082 3.12261 -38.8233 39.0193 3.16152 
[...]
CELL_DATA 15068
FIELD FieldData 2
plab 7 15068 double
0.99925581363 0.00012403106218 0.00012403106218 0.00012403106218 0.00012403106218 0.00012403106218 0.00012403106218 0.99877606562 0.00020398906368 
0.00020398906368 0.00020398906368 0.00020398906368 0.00020398906368 0.00020398906368 0.99867130878 0.0002214485361 0.0002214485361 0.0002214485361 
0.0002214485361 0.0002214485361 0.0002214485361 0.9990528543 0.00015785761644 0.00015785761644 0.00015785761644 0.00015785761644 0.00015785761644 
0.00015785761644 0.9994518674 9.047195407e-05 9.047195407e-05 9.047195407e-05 9.5772829737e-05 9.047195407e-05 9.047195407e-05 0.99930675427 
0.00011143811906 0.00011143811906 0.00011143811906 0.00011143811906 0.00013605513302 0.00011143811906 0.99663036186 0.00050484034623 0.00050484034623 
0.00050484034623 0.00050484034623 0.00084543640995 0.00050484034623 0.99743103262 0.00039566840815 0.00039566840815 0.00039566840815 0.00039566840815 
0.00059062533454 0.00039566840815 0.99846325309 0.00025120081622 0.00025120081622 0.00025120081622 0.00027167362192 0.0002602700252 0.00025120081622 
0.99870821363 0.00021529772763 0.00021529772763 0.00021529772763 0.00021529772763 0.00021529772763 0.00021529772763 0.99767441312 0.00038399696601 
0.00038399696601 0.00038399696601 0.00040560204782 0.00038399696601 0.00038399696601 0.99640506027 0.00037970333205 0.00037970333205 0.00037970333205 
0.00050507838483 0.0015710480184 0.00037970333205 0.99097934772 0.00066103295616 0.00066103295616 0.00066103295616 0.00070011775945 0.0056764026914 
0.00066103295616 0.20034240493 0.010859053226 0.010859053226 0.010859053226 0.27353591405 0.48268546812 0.010859053226 0.012446849571 
0.0015948212085 0.0013423241605 0.0023324136421 0.97951956405 0.0014217032081 0.0013423241605 0.00014265359329 9.6161806977e-05 9.0817688932e-05 
0.00010790089359 0.99938083064 9.0817688932e-05 9.0817688932e-05 0.00020046662521 0.00012465143716 0.00011205178364 0.00013312850925 0.99920559808 
0.00011205178364 0.00011205178364 9.6038959222e-05 8.0914735339e-05 8.0914735339e-05 0.00012069370429 0.9994596084 8.0914735339e-05 8.0914735339e-05 
0.00010114107076 8.7814794841e-05 8.7814794841e-05 0.00014207744189 0.99940552231 8.7814794841e-05 8.7814794841e-05 0.00057789074352 0.00037172243074 
0.00037172243074 0.0018373312007 0.99609788833 0.00037172243074 0.00037172243074 0.97923926747 0.00092476029923 0.00092476029923 0.00092476029923 
0.016136931038 0.00092476029923 0.00092476029923 0.00093589623463 0.00022378618134 0.00022378618134 0.00025530408474 0.99791365496 0.00022378618134 
0.00022378618134 0.00012417824922 0.00010609912526 0.00010609912526 0.00020805775919 0.99924336749 0.00010609912526 0.00010609912526 6.4904401156e-05 
6.1269404751e-05 6.1269404751e-05 7.7519946564e-05 0.99961249803 6.1269404751e-05 6.1269404751e-05 0.99838962333 0.00021464026553 0.00021464026553 
0.00021464026553 0.00021464026553 0.00021464026553 0.00053717534423 0.9991543617 0.00012846084558 0.00020333407591 0.00012846084558 0.00012846084558 
0.00012846084558 0.00012846084558 0.99871802205 0.00019304828083 0.00028042332047 0.00019304828083 0.00022936150713 0.00019304828083 0.00019304828083 
0.00024754565496 0.00011681688583 0.00011681688583 0.00011681688583 0.00011681688583 0.00011681688583 0.99916836992 0.00022977172986 0.00010671223429 
0.00010671223429 0.00010671223429 0.00010671223429 0.00010671223429 0.9992366671 0.00011004378871 7.353688102e-05 7.353688102e-05 7.353688102e-05 
7.353688102e-05 7.353688102e-05 0.99952227181 5.893219439e-05 5.4093488341e-05 5.4093488341e-05 5.4093488341e-05 5.4093488341e-05 5.4093488341e-05 
0.99967060036 7.3129363298e-05 6.0756053122e-05 6.0756053122e-05 6.0756053122e-05 6.0756053122e-05 6.0756053122e-05 0.99962309037 6.2526771684e-05 
5.6746888973e-05 5.6746888973e-05 5.6746888973e-05 5.6746888973e-05 5.6746888973e-05 0.99965373878 0.13017016176 0.0024792401344 0.0024792401344 
0.0024792401344 0.0024792401344 0.0024792401344 0.85743363757 0.99891944569 0.0001684861928 0.0001684861928 0.0001684861928 0.0001684861928 
0.0001684861928 0.00023812334312 0.98655998284 0.00083358568176 0.00083358568176 0.00083358568176 0.00083358568176 0.00083358568176 0.009272088747 
5.1003366924e-05 4.8320834986e-05 4.8320834986e-05 4.8320834986e-05 4.8320834986e-05 4.8320834986e-05 0.99970739246 6.4650272475e-05 5.4751274177e-05 
5.4751274177e-05 5.4751274177e-05 5.4751663553e-05 5.4751274177e-05 0.99966159297 4.6942086098e-05 4.6942086098e-05 4.6942086098e-05 4.6942086098e-05 
4.8333005455e-05 4.6942086098e-05 0.99971695656 6.8318209021e-05 5.7562605182e-05 5.7562605182e-05 5.7562605182e-05 5.7564005844e-05 5.7562605182e-05 
0.99964386736 5.8246249605e-05 5.4093525449e-05 5.4093525449e-05 5.4093525449e-05 5.4093525449e-05 5.4093525449e-05 0.99967128612 0.996402027 
0.00054900961639 0.00054900961639 0.00054900961639 0.00054900961639 0.00085292492111 0.00054900961639 0.99920200005 0.00013299999213 0.00013299999213 
0.00013299999213 0.00013299999213 0.00013299999213 0.00013299999213 0.99923647921 0.00012725346485 0.00012725346485 0.00012725346485 0.00012725346485 
0.00012725346485 0.00012725346485 0.0001729195563 0.99848273365 0.00065266857124 0.0001729195563 0.0001729195563 0.0001729195563 0.0001729195563 
6.4361548339e-05 0.99958861307 6.4361548339e-05 6.4361548339e-05 6.814598399e-05 8.5794752847e-05 6.4361548339e-05 0.99903127677 0.00016145387238 
0.00016145387238 0.00016145387238 0.00016145387238 0.00016145387238 0.00016145387238 0.99888343665 0.00018609389107 0.00018609389107 0.00018609389107 
0.00018609389107 0.00018609389107 0.00018609389107 0.00074175946127 0.00066160014796 0.00066160014796 0.00066160014796 0.98992259551 0.0064691834628 
0.00088166112532 5.7502945741e-05 5.1201128813e-05 5.1201128813e-05 5.1201128813e-05 5.1201128813e-05 0.99968649141 5.1201128813e-05 5.0885262351e-05 
4.8144324438e-05 4.8144324438e-05 4.8144324438e-05 4.8144324438e-05 0.99970839312 4.8144324438e-05 9.7031938868e-05 9.7031938868e-05 9.7031938868e-05 
0.99930820409 0.00020663621561 9.7031938868e-05 9.7031938868e-05 4.6087230845e-05 4.6087230845e-05 4.6087230845e-05 0.99972296364 4.6600204873e-05 
4.6087230845e-05 4.6087230845e-05 4.5531799218e-05 4.5531799218e-05 4.5531799218e-05 0.9997268092 4.5531799218e-05 4.5531799218e-05 4.5531799218e-05 
0.00041516551226 0.00041516551226 0.00041516551226 0.00049325996167 0.0031855866018 0.00041516551226 0.99466049139 0.027428610078 0.0017343772374 
0.0017343772374 0.0017343772374 0.0017343772374 0.96389950374 0.0017343772374 0.98435186992 0.0010284223097 0.0010284223097 0.0010284223097 
0.001221873046 0.010312567797 0.0010284223097 0.99433074855 0.00053744534623 0.00053744534623 0.00053744534623 0.00060290440924 0.0029165656555 
0.00053744534623 4.903895894e-05 0.99970576625 4.903895894e-05 4.903895894e-05 4.903895894e-05 4.903895894e-05 4.903895894e-05 0.00045460405169 
0.00016957312928 0.9986975303 0.00016957312928 0.00016957312928 0.00016957312928 0.00016957312928 0.0053513844207 0.00072230114284 0.99071490913 
0.00072230114284 0.00072230114284 0.00072230114284 0.0010445018821 4.5531799218e-05 4.5531799218e-05 0.9997268092 4.5531799218e-05 4.5531799218e-05 
4.5531799218e-05 4.5531799218e-05 6.9608077241e-05 6.0373337192e-05 0.99962852524 6.0373337192e-05 6.0373337192e-05 6.0373337192e-05 6.0373337192e-05 
0.90687049739 0.0035643959156 0.007943938144 0.0035643959156 0.0035643959156 0.0035643959156 0.070927980806 0.99908497576 0.00015102089841 
0.00015102089841 0.00015102089841 0.00015102089841 0.00015991974696 0.00015102089841 0.9987564778 0.00020313862787 0.00020313862787 0.00020313862787 
0.00020313862787 0.00022782906346 0.00020313862787 0.9981045726 0.00029939759411 0.00029939759411 0.00029939759411 0.00029939759411 0.00039843943075 
0.00029939759411 0.0007317813344 0.0007317813344 0.0007317813344 0.0007317813344 0.011830382282 0.98451071105 0.0007317813344 0.00017150839643 
0.00017150839643 0.00017150839643 0.00017150839643 0.0006444820376 0.99849797598 0.00017150839643 0.82762916366 0.0031316921681 0.0031316921681 
0.0031316921681 0.0036482890847 0.15619577858 0.0031316921681 0.99646420667 0.00035193639352 0.00035193639352 0.00035193639352 0.00035195354265 
0.0017760942146 0.00035193639352 0.00029491240906 0.00014638005669 0.00014638005669 0.00014638005669 0.00023124285681 0.99888832451 0.00014638005669 
0.0011821392811 0.00088512297753 0.00088512297753 0.00088512297753 0.012242149721 0.98303521909 0.00088512297753 0.0036978695061 0.00044050738249 
0.00044050738249 0.00044050738249 0.00049557733433 0.99404452363 0.00044050738249 0.86047894614 0.0027451378751 0.0027451378751 0.0027451378751 
0.0032580499393 0.12528245242 0.0027451378751 0.0021569315723 0.0021569315723 0.0021569315723 0.0021569315723 0.10279207931 0.88642326283 
0.0021569315723 0.9651108892 0.0014597096236 0.0014597096236 0.0014597096236 0.0017343174479 0.02731595486 0.0014597096236 0.99940297349 
9.8632572538e-05 9.8632572538e-05 9.8632572538e-05 0.00010386364431 9.8632572538e-05 9.8632572538e-05 0.99931192009 0.00011120527828 0.00011120527828 
0.00011120527828 0.00013205352201 0.00011120527828 0.00011120527828 0.99938509968 0.00010148393491 0.00010148393491 0.00010148393491 0.0001074806467 
0.00010148393491 0.00010148393491 0.0044262929476 0.99045336492 0.00093459541451 0.00093459541451 0.00099728847112 0.001319267417 0.00093459541451 
4.5531799218e-05 4.5531799218e-05 4.5531799218e-05 0.9997268092 4.5531799218e-05 4.5531799218e-05 4.5531799218e-05 0.0034851280114 0.88908034916 
0.002532256135 0.097305498285 0.002532256135 0.002532256135 0.002532256135 0.00053796347495 0.99413278867 0.0004504011652 0.0035276431954 
0.0004504011652 0.0004504011652 0.0004504011652 4.8224656868e-05 4.8224656868e-05 4.8224656868e-05 0.99970779997 5.1076744664e-05 4.8224656868e-05 
4.8224656868e-05 0.99944625699 9.2284369017e-05 9.2284369017e-05 9.2284369017e-05 9.2284369017e-05 9.2284369017e-05 9.2321166724e-05 0.9976792916 
0.00036306946891 0.00036306946891 0.00036306946891 0.00036306946891 0.0003845397429 0.0004838907769 0.99920149511 0.00013062496976 0.00013062496976 
0.00013062496976 0.00013062496976 0.00013834953255 0.00013765548313 0.9971579811 0.00043615703579 0.00043615703579 0.00043615703579 0.00043615703579 
0.0005488286933 0.0005485620622 0.99540923888 0.0007040104721 0.0007040104721 0.0007040104721 0.0007040104721 0.00093828131212 0.0008364379223 
0.99565700102 0.00060918786339 0.00060918786339 0.00060918786339 0.00060918786339 0.0011824687577 0.00072377876599 0.9993321636 0.00011130606694 
0.00011130606694 0.00011130606694 0.00011130606694 0.00011130606694 0.00011130606694 0.99934829419 0.00010861763534 0.00010861763534 0.00010861763534 
0.00010861763534 0.00010861763534 0.00010861763534 0.99149667241 0.001301529337 0.001301529337 0.001301529337 0.001301529337 0.0014599818294 
0.0018372284091 8.7185540893e-05 7.2227296694e-05 7.2227296694e-05 7.2227296694e-05 7.2227296694e-05 8.5813567233e-05 0.99953809171 4.5531799218e-05 
4.5531799218e-05 0.9997268092 4.5531799218e-05 4.5531799218e-05 4.5531799218e-05 4.5531799218e-05 4.5531799218e-05 4.5531799218e-05 0.9997268092 
4.5531799218e-05 4.5531799218e-05 4.5531799218e-05 4.5531799218e-05 4.5562326483e-05 4.5562326483e-05 0.99972662604 4.5562326483e-05 4.5562326483e-05 
4.5562326483e-05 4.5562326483e-05 6.5622309708e-05 5.5141980288e-05 0.99965866779 5.5141980288e-05 5.5141980288e-05 5.5141980288e-05 5.5141980288e-05 
4.5534546219e-05 4.5534546219e-05 0.99972679272 4.5534546219e-05 4.5534546219e-05 4.5534546219e-05 4.5534546219e-05 6.4966799318e-05 5.459921717e-05 
0.99966203711 5.459921717e-05 5.459921717e-05 5.459921717e-05 5.459921717e-05 4.5531799218e-05 4.5531799218e-05 0.9997268092 4.5531799218e-05 
4.5531799218e-05 4.5531799218e-05 4.5531799218e-05 0.00010289716551 6.8796316485e-05 0.99955312125 6.8796316485e-05 6.8796316485e-05 6.8796316485e-05 
6.8796316485e-05 0.56030229695 0.003371384691 0.4228407796 0.003371384691 0.003371384691 0.003371384691 0.003371384691 0.0051068958075 
0.00050735596526 0.99235632437 0.00050735596526 0.00050735596526 0.00050735596526 0.00050735596526 4.5534546219e-05 4.5534546219e-05 0.99972679272 
4.5534546219e-05 4.5534546219e-05 4.5534546219e-05 4.5534546219e-05 6.0393285576e-05 6.0176455644e-05 7.12609469e-05 6.0176455644e-05 6.0176455644e-05 
6.0176455644e-05 0.99962763994 5.6633550933e-05 5.6370619061e-05 6.6754075969e-05 5.6370619061e-05 5.6370619061e-05 5.6370619061e-05 0.9996511299 
0.9993317109 0.00010251028967 0.00010251028967 0.00010251028967 0.00010251028967 0.00010251028967 0.0001557376469 0.58592795401 0.0034456801005 
0.0034456801005 0.0034456801005 0.0034456801005 0.0034456801005 0.39684364549 6.1388143131e-05 5.4194875777e-05 5.4194875777e-05 5.4194875777e-05 
5.4194875777e-05 5.4194875777e-05 0.99966763748 5.4259188676e-05 5.4259188676e-05 5.4259188676e-05 6.0866218567e-05 5.7467834432e-05 5.4259188676e-05 
0.99966462919 0.99949276164 8.4539727199e-05 8.4539727199e-05 8.4539727199e-05 8.4539727199e-05 8.4539727199e-05 8.4539727199e-05 0.99920272752 
0.0001328787459 0.0001328787459 0.0001328787459 0.0001328787459 0.0001328787459 0.0001328787459 0.99887254274 0.0001879095439 0.0001879095439 
0.0001879095439 0.0001879095439 0.0001879095439 0.0001879095439 0.9993940787 0.00010098688274 0.00010098688274 0.00010098688274 0.00010098688274 
0.00010098688274 0.00010098688274 0.99936234913 0.0001052648592 0.0001052648592 0.0001052648592 0.0001052648592 0.00011132657076 0.0001052648592 
0.99937892185 0.0001035130257 0.0001035130257 0.0001035130257 0.0001035130257 0.0001035130257 0.0001035130257 0.99951135846 8.1429184267e-05 
8.1429184267e-05 8.1429184267e-05 8.1495613715e-05 8.1429184267e-05 8.1429184267e-05 0.9987311586 0.00021147356584 0.00021147356584 0.00021147356584 
0.00021147356584 0.00021147356584 0.00021147356584 0.99777191233 0.000371347945 0.000371347945 0.000371347945 0.000371347945 0.000371347945 
0.000371347945 0.99858930606 0.00023511565618 0.00023511565618 0.00023511565618 0.00023511565618 0.00023511565618 0.00023511565618 0.99712567448 
0.00047453886844 0.00047453886844 0.00047453886844 0.00050163117704 0.00047453886844 0.00047453886844 0.99746811048 0.00042198158739 0.00042198158739 
0.00042198158739 0.00042198158739 0.00042198158739 0.00042198158739 0.99681110715 0.00052139595926 0.00052139595926 0.00052139595926 0.00058191305517 
0.00052139595926 0.00052139595926 0.99806707244 0.0003221545937 0.0003221545937 0.0003221545937 0.0003221545937 0.0003221545937 0.0003221545937 
0.99893849394 0.00017691767672 0.00017691767672 0.00017691767672 0.00017691767672 0.00017691767672 0.00017691767672 0.99893661909 0.00017723015131 
0.00017723015131 0.00017723015131 0.00017723015131 0.00017723015131 0.00017723015131 0.99930114298 0.00011593890753 0.00011593890753 0.00011593890753 
0.00011593890753 0.00011916248273 0.00011593890753 0.99939076112 0.00010153981269 0.00010153981269 0.00010153981269 0.00010153981269 0.00010153981269 
0.00010153981269 0.99927892511 0.00011779293765 0.00011779293765 0.00011779293765 0.00013211020431 0.00011779293765 0.00011779293765 0.99917194784 
0.00013800869256 0.00013800869256 0.00013800869256 0.00013800869256 0.00013800869256 0.00013800869256 0.99898740902 0.00015683727274 0.00015683727274 
0.00015683727274 0.00022840461527 0.00015683727274 0.00015683727274 0.99894016734 0.0001766387759 0.0001766387759 0.0001766387759 0.0001766387759 
0.0001766387759 0.0001766387759 0.066601224081 0.0018741996427 0.0018741996427 0.0018741996427 0.92402777771 0.0018741996427 0.0018741996427 
0.00045766284459 0.00017808737318 0.00015876587028 0.00015876876067 0.99872918341 0.00015876587028 0.00015876587028 0.99898592333 0.00013648897793 
0.00013648897793 0.00013648897793 0.0003316317812 0.00013648897793 0.00013648897793 0.99936657279 0.00010481253949 9.8961826038e-05 9.8961826038e-05 
0.00013276736738 9.8961826038e-05 9.8961826038e-05 0.99936565 0.00010263829917 0.00010263829917 0.00010263829917 0.00012115850722 0.00010263829917 
0.00010263829917 0.99071834666 0.00060417617498 0.00060417617498 0.00060417617498 0.0062607724627 0.00060417617498 0.00060417617498 0.99829302291 
0.00022672262643 0.00022672262643 0.00022672262643 0.00057336396129 0.00022672262643 0.00022672262643 0.99939859331 9.7189729845e-05 9.7189729845e-05 
9.7189729845e-05 9.7189729845e-05 0.00011545803635 9.7189729845e-05 0.99940663264 9.889455992e-05 9.889455992e-05 9.889455992e-05 9.889455992e-05 
9.889455992e-05 9.889455992e-05 0.99933591673 0.0001049381992 0.0001049381992 0.0001049381992 0.0001049381992 0.0001393922788 0.0001049381992 
0.99938457607 9.7638126813e-05 9.7638126813e-05 9.7638126813e-05 9.7638126813e-05 0.00012723330087 9.7638126813e-05 0.99885779521 0.00019036746494 
0.00019036746494 0.00019036746494 0.00019036746494 0.00019036746494 0.00019036746494 0.99758336281 0.00040277286558 0.00040277286558 0.00040277286558 
0.00040277286558 0.00040277286558 0.00040277286558 0.99694279573 0.00050953404581 0.00050953404581 0.00050953404581 0.00050953404581 0.00050953404581 
0.00050953404581 0.99789864885 0.00035022519113 0.00035022519113 0.00035022519113 0.00035022519113 0.00035022519113 0.00035022519113 0.99923232178 
0.00012794636932 0.00012794636932 0.00012794636932 0.00012794636932 0.00012794636932 0.00012794636932 0.99928760309 0.00011760383433 0.00011760383433 
0.00011760383433 0.00012437774026 0.00011760383433 0.00011760383433 0.99935480353 0.00010426399253 0.00010426399253 0.00010426399253 0.00010426399253 
0.00012387650573 0.00010426399253 0.99908337168 0.00014303726435 0.00014303726435 0.00014303726435 0.0001681717969 0.00017630746176 0.00014303726435 
0.99951606325 8.0656124624e-05 8.0656124624e-05 8.0656124624e-05 8.0656124624e-05 8.0656124624e-05 8.0656124624e-05 0.998387944 0.0002660931295 
0.0002660931295 0.0002660931295 0.0002660931295 0.00028159034931 0.0002660931295 0.99839519246 0.00026225943394 0.00026225943394 0.00026225943394 
0.00026225943394 0.00029351037471 0.00026225943394 0.9985815966 0.00023640056674 0.00023640056674 0.00023640056674 0.00023640056674 0.00023640056674 
0.00023640056674 0.99762287038 0.00037543603063 0.00037543603063 0.00037543603063 0.00037543603063 0.00049994946758 0.00037543603063 0.9960450898 
0.00063979766604 0.00063979766604 0.00063979766604 0.00075592187099 0.00063979766604 0.00063979766604 0.99868621525 0.00021896412477 0.00021896412477 
0.00021896412477 0.00021896412477 0.00021896412477 0.00021896412477 0.99868153225 0.00021196910378 0.00021196910378 0.00021196910378 0.00021196910378 
0.00025862223059 0.00021196910378 0.99722564245 0.00042145327934 0.00042145327934 0.00042145327934 0.00042145327934 0.00066709115325 0.00042145327934 
0.99725693502 0.00041083852232 0.00041083852232 0.00041083852232 0.00041083852232 0.0006888723704 0.00041083852232 0.99754526639 0.00036764876523 
0.00036764876523 0.00036764876523 0.00036764876523 0.00061648978105 0.00036764876523 0.99795321198 0.000315250893 0.000315250893 0.000315250893 
0.000315250893 0.00047053355116 0.000315250893 0.99829895939 0.00026987668787 0.00026987668787 0.00026987668787 0.00026987668787 0.00035165717556 
0.00026987668787 0.99581674401 0.00062975769941 0.00062975769941 0.00062975769941 0.00062975769941 0.0010344674882 0.00062975769941 0.99638313603 
0.00055678067194 0.00055678067194 0.00055678067194 0.00055678067194 0.0008329606145 0.00055678067194 0.99718156159 0.00043941276194 0.00043941276194 
0.00043941276194 0.00043941276194 0.00062137460004 0.00043941276194 0.99762155346 0.00038852491144 0.00038852491144 0.00038852491144 0.00038852491144 
0.00043582198009 0.00038852491144 0.9968394196 0.00049311562246 0.00049311562246 0.00049311562246 0.00049311562246 0.00069500228505 0.00049311562246 
0.99910835471 0.00014860754842 0.00014860754842 0.00014860754842 0.00014860754842 0.00014860754842 0.00014860754842 0.99905328587 0.0001562381196 
0.0001562381196 0.0001562381196 0.00016552353168 0.0001562381196 0.0001562381196 0.99898553044 0.00016907826061 0.00016907826061 0.00016907826061 